Name,LUMO ren (output),LUMO ren (output)_forecasted,LUMO ren (output)_residual,Gap_PBE,Gap_B3LYP,avgempty(eV-1),inv((LUMO+4)-LUMO),inv((LUMO+3)-LUMO),inv((LUMO+2)-LUMO),inv((LUMO+1)-LUMO)
C100-T-321,-27.2,-20.172792700365044,-7.027207299634956,121.6,721.9,0.5653961547,0.8942643357,1.2855095384,1.4332483781,0.0
C100-Td-285914-NZ,12.0,5.874716731262351,6.125283268737649,245.8,957.2,0.4368423445,0.5715591188,0.8557344385,0.8658564215,0.0
C104-C1-418995-NZ,-20.8,-13.078753355393825,-7.721246644606175,338.7,967.0,0.660851062,0.7642814507,0.865623371,1.645193792,3.1145234342
C104-S4-407398-NZ,-8.2,-6.873400164786631,-1.3265998352133686,378.5,1099.5,0.4889267324,0.5842537079,0.9192858451,1.6738335505,0.0
C104-T-418034-NZ,-11.4,-11.043083579058298,-0.35691642094170284,750.1,1357.7,0.4775088317,0.6857514744,0.6870125922,0.0,0.0
C180-Ih-1,-38.34,-31.83367562562242,-6.506324374377584,1436.6,2244.0,0.9505919136,2.9585087462,2.9786226013,0.0,0.0